Untitled

3873 atoms
2584 bonds
1301 angles
16 dihedrals
0 impropers

8 atom types
9 bond types
14 angle types
16 dihedral types

 -0.8500000  33.2176000 xlo xhi
 -0.7800000  33.2876000 ylo yhi
 -0.5300000  33.5376000 zlo zhi
  0.0000000   0.0000000   0.0000000 xy xz yz

Masses

1  12.0100000 #C1
2  12.0100000 #C2
3  16.0000000 #O
4   1.0080000 #HC1
5   1.0080000 #HC2
6   1.0080000 #HO
7  16.0000000 #OW
8   1.0080000 #HOW

Bond Coeffs

1 harmonic    3.03095124e+02    1.53500000e+00 #C1-C2
2 harmonic    3.37296845e+02    1.09200000e+00 #C1-H1
3 harmonic    3.37296845e+02    1.09200000e+00 #C1-H2
4 harmonic    3.37296845e+02    1.09200000e+00 #C1-H3
5 harmonic    3.14101338e+02    1.42600000e+00 #C2-O1
6 harmonic    3.35898662e+02    1.09300000e+00 #C2-H4
7 harmonic    3.35898662e+02    1.09300000e+00 #C2-H5
8 harmonic    3.69598470e+02    9.74000000e-01 #O1-H6
9 harmonic    450               9.57200000e-01 #OW-HW

Angle Coeffs

1 harmonic    6.77198853e+01    1.09430000e+02
2 harmonic    4.63599426e+01    1.10070000e+02
3 harmonic    4.63599426e+01    1.10070000e+02
4 harmonic    4.63695029e+01    1.10050000e+02
5 harmonic    4.63695029e+01    1.10050000e+02
6 harmonic    4.63695029e+01    1.10050000e+02
7 harmonic    4.70901052e+01    1.08160000e+02
8 harmonic    5.09703633e+01    1.09880000e+02
9 harmonic    5.09703633e+01    1.09880000e+02
10 harmonic    3.94299713e+01    1.08350000e+02
11 harmonic    3.94299713e+01    1.08350000e+02
12 harmonic    3.94299713e+01    1.08350000e+02
13 harmonic    3.91802103e+01    1.09550000e+02
14 harmonic    55.0              1.04519936e+02


Dihedral Coeffs

1 multi/harmonic    1.60000000e-01   -4.80000000e-01    0.00000000e+00    6.40000000e-01    0.00000000e+00
2 multi/harmonic    2.50000000e-01    2.50000000e-01    0.00000000e+00    0.00000000e+00    0.00000000e+00
3 multi/harmonic    0.00000000e+00    0.00000000e+00    0.00000000e+00    0.00000000e+00    0.00000000e+00
4 multi/harmonic    2.50000000e-01    2.50000000e-01    0.00000000e+00    0.00000000e+00    0.00000000e+00
5 multi/harmonic    1.55554493e-01   -4.66663480e-01    0.00000000e+00    6.22217973e-01    0.00000000e+00
6 multi/harmonic    1.55554493e-01   -4.66663480e-01    0.00000000e+00    6.22217973e-01    0.00000000e+00
7 multi/harmonic    2.50000000e-01    2.50000000e-01    0.00000000e+00    0.00000000e+00    0.00000000e+00
8 multi/harmonic    0.00000000e+00    0.00000000e+00    0.00000000e+00    0.00000000e+00    0.00000000e+00
9 multi/harmonic    1.55554493e-01   -4.66663480e-01    0.00000000e+00    6.22217973e-01    0.00000000e+00
10 multi/harmonic    1.55554493e-01   -4.66663480e-01    0.00000000e+00    6.22217973e-01    0.00000000e+00
11 multi/harmonic    0.00000000e+00    0.00000000e+00    0.00000000e+00    0.00000000e+00    0.00000000e+00
12 multi/harmonic    2.50000000e-01    2.50000000e-01    0.00000000e+00    0.00000000e+00    0.00000000e+00
13 multi/harmonic    1.55554493e-01   -4.66663480e-01    0.00000000e+00    6.22217973e-01    0.00000000e+00
14 multi/harmonic    1.55554493e-01   -4.66663480e-01    0.00000000e+00    6.22217973e-01    0.00000000e+00
15 multi/harmonic    1.66665870e-01   -4.99997610e-01    0.00000000e+00    6.66663480e-01    0.00000000e+00
16 multi/harmonic    1.66665870e-01   -4.99997610e-01    0.00000000e+00    6.66663480e-01    0.00000000e+00

Atoms

1  1  1 -0.09680000   16.5600000   16.2400000   17.4800000
2  1  2  0.12970000  17.4100000  17.4200000  17.0600000
3  1  3  -0.59940100  17.0200000  17.8300000  15.7600000
4  1  4  0.04480000  16.8400000  15.9000000  18.4800000
5  1  4  0.04480000  15.5000000  16.5100000  17.4800000
6  1  4  0.04480000  16.6800000  15.4100000  16.7800000
7  1  5  0.01710000  18.4700000  17.1500000  17.0300000
8  1  5  0.01710000  17.2700000  18.2600000  17.7500000
9  1  6  0.39790000  17.5800000  18.5900000  15.5200000
10  2  7  -0.83400000  0.1900000  3.6800000  6.4700000
11  2  8  0.41700000  -0.6300000  4.1100000  6.8600000
12  2  8  0.41700000  -0.0900000  2.9500000  5.8400000
13  3  7  -0.83400000  5.6900000  12.7500000  11.6500000
14  3  8  0.41700000  4.7600000  12.6800000  11.2800000
15  3  8  0.41700000  5.8000000  13.6400000  12.0900000
16  4  7  -0.83400000  15.5500000  15.1100000  7.0300000
17  4  8  0.41700000  14.9800000  14.9500000  7.8400000
18  4  8  0.41700000  14.9600000  15.2100000  6.2300000
19  5  7  -0.83400000  17.4300000  6.1800000  8.5600000
20  5  8  0.41700000  17.7600000  7.1200000  8.5600000
21  5  8  0.41700000  17.9400000  5.6400000  9.2200000
22  6  7  -0.83400000  11.3500000  7.0300000  7.1700000
23  6  8  0.41700000  11.9200000  7.8100000  6.9200000
24  6  8  0.41700000  10.7500000  7.2900000  7.9300000
25  7  7  -0.83400000  17.5500000  6.0700000  2.3100000
26  7  8  0.41700000  17.4300000  5.9400000  1.3200000
27  7  8  0.41700000  17.2500000  5.2600000  2.8000000
28  8  7  -0.83400000  7.6800000  11.4400000  10.2300000
29  8  8  0.41700000  6.9000000  11.6100000  10.8300000
30  8  8  0.41700000  8.0200000  12.3100000  9.8700000
31  9  7  -0.83400000  8.5000000  7.9800000  18.2300000
32  9  8  0.41700000  8.4600000  8.7400000  18.8800000
33  9  8  0.41700000  8.7200000  8.3400000  17.3200000
34  10  7  -0.83400000  6.8500000  10.1200000  6.6500000
35  10  8  0.41700000  7.5400000  9.9600000  7.3500000
36  10  8  0.41700000  6.1200000  10.6900000  7.0300000
37  11  7  -0.83400000  6.8600000  11.6100000  18.0300000
38  11  8  0.41700000  7.4600000  12.4000000  18.1700000
39  11  8  0.41700000  6.0000000  11.9200000  17.6200000
40  12  7  -0.83400000  3.3500000  14.3500000  10.6100000
41  12  8  0.41700000  2.5700000  14.0400000  10.0800000
42  12  8  0.41700000  3.9300000  14.9300000  10.0400000
43  13  7  -0.83400000  14.6000000  15.0500000  13.3900000
44  13  8  0.41700000  14.8400000  15.9900000  13.6500000
45  13  8  0.41700000  14.4400000  14.5100000  14.2100000
46  14  7  -0.83400000  4.3800000  3.9200000  14.9900000
47  14  8  0.41700000  5.2000000  3.3600000  15.0800000
48  14  8  0.41700000  3.5700000  3.3400000  15.0300000
49  15  7  -0.83400000  16.0300000  4.4700000  7.3700000
50  15  8  0.41700000  15.2900000  4.9300000  6.8700000
51  15  8  0.41700000  16.5400000  5.1500000  7.9000000
52  16  7  -0.83400000  11.2700000  13.4100000  16.9000000
53  16  8  0.41700000  11.7400000  13.4100000  17.7800000
54  16  8  0.41700000  10.7900000  12.5400000  16.7900000
55  17  7  -0.83400000  2.3000000  14.3400000  5.3800000
56  17  8  0.41700000  2.0400000  15.3000000  5.3800000
57  17  8  0.41700000  1.5900000  13.8000000  5.8300000
58  18  7  -0.83400000  6.2000000  17.8600000  14.3900000
59  18  8  0.41700000  5.2800000  17.6900000  14.7400000
60  18  8  0.41700000  6.4800000  18.7800000  14.6500000
61  19  7  -0.83400000  6.0600000  9.6400000  1.2300000
62  19  8  0.41700000  6.1300000  10.4800000  0.6900000
63  19  8  0.41700000  6.5200000  9.7700000  2.1100000
64  20  7  -0.83400000  15.9400000  1.1400000  14.8000000
65  20  8  0.41700000  15.7600000  1.8100000  14.0800000
66  20  8  0.41700000  15.9100000  1.6000000  15.6900000
67  21  7  -0.83400000  18.4200000  17.6700000  3.5900000
68  21  8  0.41700000  18.9600000  17.3800000  4.3900000
69  21  8  0.41700000  18.7200000  18.5700000  3.3000000
70  22  7  -0.83400000  16.8900000  9.2200000  6.1200000
71  22  8  0.41700000  17.8400000  8.9300000  6.2000000
72  22  8  0.41700000  16.8100000  9.8700000  5.3700000
73  23  7  -0.83400000  16.4100000  11.0800000  4.3200000
74  23  8  0.41700000  17.2700000  11.1000000  3.8000000
75  23  8  0.41700000  16.5500000  11.5500000  5.2000000
76  24  7  -0.83400000  6.1300000  13.6500000  7.2600000
77  24  8  0.41700000  5.6400000  12.7800000  7.3500000
78  24  8  0.41700000  5.9000000  14.0800000  6.3900000
79  25  7  -0.83400000  12.9300000  12.2800000  14.2300000
80  25  8  0.41700000  13.3000000  11.5500000  13.6500000
81  25  8  0.41700000  13.4500000  12.3300000  15.0800000
82  26  7  -0.83400000  8.0900000  0.0400000  5.0200000
83  26  8  0.41700000  8.4900000  0.9500000  4.9300000
84  26  8  0.41700000  7.0900000  0.1200000  5.0800000
85  27  7  -0.83400000  15.2500000  9.9900000  1.9000000
86  27  8  0.41700000  14.6200000  9.2300000  2.0300000
87  27  8  0.41700000  15.7300000  10.1700000  2.7600000
88  28  7  -0.83400000  11.8700000  17.9200000  16.1600000
89  28  8  0.41700000  12.1100000  18.5200000  15.4000000
90  28  8  0.41700000  11.9400000  16.9700000  15.8600000
91  29  7  -0.83400000  3.1700000  2.5100000  18.0100000
92  29  8  0.41700000  3.8800000  3.2200000  18.0700000
93  29  8  0.41700000  2.2900000  2.9000000  18.2900000
94  30  7  -0.83400000  14.6600000  14.1700000  9.5300000
95  30  8  0.41700000  14.0700000  14.2300000  10.3300000
96  30  8  0.41700000  14.5100000  13.2900000  9.0700000
97  31  7  -0.83400000  16.6700000  17.1400000  5.7200000
98  31  8  0.41700000  16.2600000  16.9100000  4.8400000
99  31  8  0.41700000  16.4900000  16.4000000  6.3700000
100  32  7  -0.83400000  5.9800000  7.2900000  2.7000000
101  32  8  0.41700000  6.2200000  7.9800000  2.0200000
102  32  8  0.41700000  5.2000000  7.6200000  3.2400000
103  33  7  -0.83400000  12.8100000  3.4500000  9.4400000
104  33  8  0.41700000  11.9500000  2.9500000  9.3100000
105  33  8  0.41700000  13.4300000  2.9100000  10.0000000
106  34  7  -0.83400000  15.7600000  16.6200000  3.0700000
107  34  8  0.41700000  16.6500000  17.0800000  3.1000000
108  34  8  0.41700000  15.5500000  16.3800000  2.1200000
109  35  7  -0.83400000  8.0700000  6.0500000  14.6500000
110  35  8  0.41700000  7.6000000  6.0200000  15.5400000
111  35  8  0.41700000  7.5600000  5.5000000  13.9900000
112  36  7  -0.83400000  13.9400000  4.6900000  16.7400000
113  36  8  0.41700000  13.7400000  5.1200000  17.6200000
114  36  8  0.41700000  14.7200000  4.0700000  16.8300000
115  37  7  -0.83400000  9.7300000  8.9000000  15.7200000
116  37  8  0.41700000  10.1900000  8.0600000  15.4300000
117  37  8  0.41700000  9.1700000  9.2400000  14.9700000
118  38  7  -0.83400000  9.9100000  4.1000000  12.4200000
119  38  8  0.41700000  9.1400000  4.4400000  12.9600000
120  38  8  0.41700000  9.5700000  3.5900000  11.6300000
121  39  7  -0.83400000  10.4100000  7.0100000  4.2900000
122  39  8  0.41700000  10.6700000  6.9700000  5.2500000
123  39  8  0.41700000  9.5600000  6.5000000  4.1500000
124  40  7  -0.83400000  8.6500000  3.4800000  1.9500000
125  40  8  0.41700000  9.2400000  4.1100000  1.4600000
126  40  8  0.41700000  8.8400000  2.5400000  1.6600000
127  41  7  -0.83400000  17.1900000  5.8500000  18.3100000
128  41  8  0.41700000  16.9300000  6.7400000  17.9500000
129  41  8  0.41700000  17.1700000  5.1700000  17.5800000
130  42  7  -0.83400000  13.6200000  11.4400000  5.4500000
131  42  8  0.41700000  14.4500000  11.1500000  4.9700000
132  42  8  0.41700000  13.1300000  12.1100000  4.8900000
133  43  7  -0.83400000  5.5000000  1.9600000  8.8500000
134  43  8  0.41700000  5.4500000  1.9100000  9.8500000
135  43  8  0.41700000  5.5200000  2.9200000  8.5600000
136  44  7  -0.83400000  10.0800000  14.5600000  4.7700000
137  44  8  0.41700000  9.6200000  15.2800000  4.2500000
138  44  8  0.41700000  10.0400000  14.7600000  5.7500000
139  45  7  -0.83400000  3.5100000  18.0100000  8.5300000
140  45  8  0.41700000  4.0100000  17.1500000  8.5900000
141  45  8  0.41700000  4.1600000  18.7800000  8.5000000
142  46  7  -0.83400000  17.9500000  10.6600000  8.7300000
143  46  8  0.41700000  17.3300000  10.5100000  7.9700000
144  46  8  0.41700000  17.4300000  10.7700000  9.5800000
145  47  7  -0.83400000  12.2700000  15.5000000  15.0600000
146  47  8  0.41700000  12.3300000  14.7300000  15.7000000
147  47  8  0.41700000  11.7500000  15.2400000  14.2600000
148  48  7  -0.83400000  3.2100000  9.4300000  2.4200000
149  48  8  0.41700000  4.0300000  9.8200000  2.0000000
150  48  8  0.41700000  2.9400000  8.6100000  1.9300000
151  49  7  -0.83400000  14.5800000  7.3500000  7.2800000
152  49  8  0.41700000  14.5300000  6.7000000  8.0300000
153  49  8  0.41700000  15.3800000  7.9400000  7.4100000
154  50  7  -0.83400000  4.6100000  12.6600000  17.2700000
155  50  8  0.41700000  4.1100000  12.6700000  16.4100000
156  50  8  0.41700000  3.9800000  12.4800000  18.0300000
157  51  7  -0.83400000  11.1100000  17.7600000  2.3700000
158  51  8  0.41700000  10.5100000  17.1400000  2.8700000
159  51  8  0.41700000  11.4200000  17.3200000  1.5200000
160  52  7  -0.83400000  16.3200000  13.7700000  0.8100000
161  52  8  0.41700000  16.0000000  14.7100000  0.7100000
162  52  8  0.41700000  15.5600000  13.1400000  0.6900000
163  53  7  -0.83400000  4.6400000  17.4300000  3.2300000
164  53  8  0.41700000  4.9700000  17.8200000  4.0900000
165  53  8  0.41700000  5.4000000  17.3600000  2.5800000
166  54  7  -0.83400000  14.0000000  1.0700000  4.2600000
167  54  8  0.41700000  13.7600000  0.7000000  3.3600000
168  54  8  0.41700000  14.9900000  1.2300000  4.3000000
169  55  7  -0.83400000  9.4000000  16.9800000  9.0400000
170  55  8  0.41700000  10.2000000  16.4100000  9.2500000
171  55  8  0.41700000  8.9100000  16.5800000  8.2700000
172  56  7  -0.83400000  3.8200000  7.0000000  4.8000000
173  56  8  0.41700000  4.2700000  6.1000000  4.7700000
174  56  8  0.41700000  2.8800000  6.8900000  5.1300000
175  57  7  -0.83400000  15.4700000  2.2200000  17.2900000
176  57  8  0.41700000  15.4200000  2.5900000  18.2100000
177  57  8  0.41700000  14.7500000  1.5300000  17.1700000
178  58  7  -0.83400000  6.1400000  1.2200000  1.1700000
179  58  8  0.41700000  7.1200000  1.0000000  1.2400000
180  58  8  0.41700000  5.8300000  1.0500000  0.2400000
181  59  7  -0.83400000  7.8100000  2.6400000  17.4900000
182  59  8  0.41700000  8.4800000  2.0300000  17.9200000
183  59  8  0.41700000  7.0800000  2.8300000  18.1400000
184  60  7  -0.83400000  8.8800000  15.1400000  11.9500000
185  60  8  0.41700000  8.6500000  14.8900000  11.0100000
186  60  8  0.41700000  9.4900000  14.4500000  12.3400000
187  61  7  -0.83400000  13.5100000  5.9000000  14.3300000
188  61  8  0.41700000  13.7900000  5.4700000  15.1800000
189  61  8  0.41700000  13.7600000  6.8600000  14.3400000
190  62  7  -0.83400000  8.0300000  14.0200000  9.2400000
191  62  8  0.41700000  8.9300000  14.1600000  8.8200000
192  62  8  0.41700000  7.3200000  14.0400000  8.5300000
193  63  7  -0.83400000  9.2200000  5.0300000  8.9900000
194  63  8  0.41700000  8.9700000  4.9400000  8.0300000
195  63  8  0.41700000  9.7000000  4.2100000  9.3000000
196  64  7  -0.83400000  5.3900000  0.6400000  5.1200000
197  64  8  0.41700000  4.5800000  0.6500000  5.7000000
198  64  8  0.41700000  5.4200000  1.4700000  4.5700000
199  65  7  -0.83400000  14.3400000  11.8800000  0.4100000
200  65  8  0.41700000  14.6600000  11.1200000  0.9800000
201  65  8  0.41700000  13.4200000  12.1500000  0.7100000
202  66  7  -0.83400000  2.9700000  0.3500000  1.7100000
203  66  8  0.41700000  3.4600000  1.1900000  1.5000000
204  66  8  0.41700000  3.5900000  -0.3000000  2.1600000
205  67  7  -0.83400000  9.3500000  2.3600000  4.8000000
206  67  8  0.41700000  8.8700000  2.7700000  4.0200000
207  67  8  0.41700000  10.3400000  2.3400000  4.6100000
208  68  7  -0.83400000  10.7600000  6.8300000  14.6400000
209  68  8  0.41700000  9.9600000  6.2200000  14.6700000
210  68  8  0.41700000  11.5700000  6.3000000  14.4000000
211  69  7  -0.83400000  12.2700000  15.7000000  7.9300000
212  69  8  0.41700000  12.4800000  16.4400000  7.2800000
213  69  8  0.41700000  12.9500000  15.7000000  8.6600000
214  70  7  -0.83400000  4.5900000  11.5200000  7.4100000
215  70  8  0.41700000  3.8800000  11.2500000  8.0600000
216  70  8  0.41700000  4.3300000  11.2400000  6.4800000
217  71  7  -0.83400000  12.7100000  17.9700000  5.9100000
218  71  8  0.41700000  13.1500000  18.6100000  5.2700000
219  71  8  0.41700000  12.2100000  18.4900000  6.6100000
220  72  7  -0.83400000  10.3200000  5.4900000  0.1600000
221  72  8  0.41700000  9.9100000  6.3100000  -0.2300000
222  72  8  0.41700000  10.9600000  5.7500000  0.8900000
223  73  7  -0.83400000  5.6100000  2.2200000  11.4700000
224  73  8  0.41700000  5.9900000  1.3800000  11.8400000
225  73  8  0.41700000  4.7300000  2.4100000  11.9100000
226  74  7  -0.83400000  8.6600000  4.5400000  6.4200000
227  74  8  0.41700000  8.3400000  5.2600000  5.8000000
228  74  8  0.41700000  8.9000000  3.7300000  5.8900000
229  75  7  -0.83400000  10.1700000  0.3900000  7.5300000
230  75  8  0.41700000  9.4500000  0.4400000  6.8400000
231  75  8  0.41700000  9.9300000  -0.3000000  8.2200000
232  76  7  -0.83400000  14.2900000  11.7300000  8.6700000
233  76  8  0.41700000  13.7400000  10.8900000  8.6000000
234  76  8  0.41700000  14.5500000  12.0200000  7.7500000
235  77  7  -0.83400000  14.6600000  5.9000000  9.9200000
236  77  8  0.41700000  14.3600000  4.9500000  9.9900000
237  77  8  0.41700000  15.3900000  6.0600000  10.5800000
238  78  7  -0.83400000  18.5700000  8.3300000  3.7700000
239  78  8  0.41700000  18.9900000  7.6900000  4.4100000
240  78  8  0.41700000  18.1900000  7.8200000  2.9900000
241  79  7  -0.83400000  4.8800000  13.8500000  1.7400000
242  79  8  0.41700000  4.0100000  13.7000000  2.2100000
243  79  8  0.41700000  4.7100000  14.1100000  0.7900000
244  80  7  -0.83400000  16.6400000  12.8000000  6.5700000
245  80  8  0.41700000  17.6300000  12.8800000  6.7100000
246  80  8  0.41700000  16.1900000  13.6400000  6.8800000
247  81  7  -0.83400000  13.9000000  5.7500000  0.7800000
248  81  8  0.41700000  13.3600000  5.5400000  1.5900000
249  81  8  0.41700000  14.8100000  5.3400000  0.8700000
250  82  7  -0.83400000  5.2700000  2.5600000  3.2800000
251  82  8  0.41700000  5.5400000  1.9700000  2.5300000
252  82  8  0.41700000  5.2700000  3.5100000  2.9700000
253  83  7  -0.83400000  17.5400000  12.2300000  15.8800000
254  83  8  0.41700000  18.4500000  11.8400000  15.7500000
255  83  8  0.41700000  17.6200000  13.1900000  16.1200000
256  84  7  -0.83400000  10.6400000  13.4700000  13.4000000
257  84  8  0.41700000  9.8400000  13.2400000  13.9500000
258  84  8  0.41700000  11.4700000  13.2100000  13.8900000
259  85  7  -0.83400000  11.1100000  11.9500000  11.0000000
260  85  8  0.41700000  10.7100000  12.3900000  11.8100000
261  85  8  0.41700000  10.7000000  12.3200000  10.1700000
262  86  7  -0.83400000  16.3800000  10.9900000  10.7900000
263  86  8  0.41700000  16.4300000  11.8000000  11.3800000
264  86  8  0.41700000  15.5200000  11.0100000  10.2800000
265  87  7  -0.83400000  9.1500000  0.8900000  14.0200000
266  87  8  0.41700000  9.4000000  0.6900000  13.0700000
267  87  8  0.41700000  9.8700000  1.4500000  14.4400000
268  88  7  -0.83400000  9.8000000  11.1600000  17.1900000
269  88  8  0.41700000  8.8100000  11.2200000  17.2900000
270  88  8  0.41700000  10.0300000  10.3600000  16.6300000
271  89  7  -0.83400000  7.0500000  10.5000000  3.6800000
272  89  8  0.41700000  6.9100000  10.5700000  4.6700000
273  89  8  0.41700000  7.8900000  9.9900000  3.5000000
274  90  7  -0.83400000  4.1000000  8.1300000  12.5100000
275  90  8  0.41700000  4.9600000  8.2500000  13.0100000
276  90  8  0.41700000  3.6800000  7.2600000  12.7800000
277  91  7  -0.83400000  12.7400000  3.8600000  12.6200000
278  91  8  0.41700000  12.9500000  4.6000000  13.2600000
279  91  8  0.41700000  11.8500000  4.0300000  12.1900000
280  92  7  -0.83400000  3.6700000  11.0000000  5.0100000
281  92  8  0.41700000  3.6000000  11.8300000  4.4500000
282  92  8  0.41700000  3.7100000  10.2000000  4.4100000
283  93  7  -0.83400000  5.6600000  5.3700000  8.6500000
284  93  8  0.41700000  5.7800000  6.0300000  7.9100000
285  93  8  0.41700000  6.1200000  5.7100000  9.4800000
286  94  7  -0.83400000  12.5200000  13.4800000  3.8800000
287  94  8  0.41700000  13.0200000  14.2500000  4.2800000
288  94  8  0.41700000  11.5700000  13.5000000  4.2000000
289  95  7  -0.83400000  12.7200000  14.4500000  11.4200000
290  95  8  0.41700000  13.1900000  14.5800000  12.2900000
291  95  8  0.41700000  12.0600000  13.7100000  11.5100000
292  96  7  -0.83400000  15.8200000  6.3900000  4.7200000
293  96  8  0.41700000  15.5100000  7.0000000  5.4500000
294  96  8  0.41700000  16.3200000  6.9100000  4.0300000
295  97  7  -0.83400000  3.5400000  15.1000000  13.2900000
296  97  8  0.41700000  3.3300000  14.6600000  12.4200000
297  97  8  0.41700000  4.5100000  15.3600000  13.3200000
298  98  7  -0.83400000  4.0200000  7.5100000  15.9800000
299  98  8  0.41700000  4.7000000  8.0600000  15.5100000
300  98  8  0.41700000  4.4200000  6.6300000  16.2500000
301  99  7  -0.83400000  15.8700000  7.7900000  16.7000000
302  99  8  0.41700000  14.9500000  8.1700000  16.6500000
303  99  8  0.41700000  16.4700000  8.2600000  16.0500000
304  100  7  -0.83400000  10.1300000  1.0500000  17.7000000
305  100  8  0.41700000  10.1900000  1.9000000  17.1800000
306  100  8  0.41700000  10.4500000  0.2900000  17.1300000
307  101  7  -0.83400000  5.0400000  0.5000000  17.4000000
308  101  8  0.41700000  4.6200000  -0.0700000  16.7000000
309  101  8  0.41700000  4.3800000  1.1900000  17.7200000
310  102  7  -0.83400000  5.7300000  8.7000000  10.2900000
311  102  8  0.41700000  6.1700000  9.5900000  10.2000000
312  102  8  0.41700000  5.1000000  8.7000000  11.0600000
313  103  7  -0.83400000  13.6000000  8.6200000  10.4500000
314  103  8  0.41700000  12.8500000  8.6200000  9.7900000
315  103  8  0.41700000  13.9700000  7.7000000  10.5400000
316  104  7  -0.83400000  12.0900000  5.2500000  2.7500000
317  104  8  0.41700000  12.2200000  4.4100000  3.2900000
318  104  8  0.41700000  11.8000000  5.9900000  3.3500000
319  105  7  -0.83400000  3.0700000  2.1300000  12.3100000
320  105  8  0.41700000  2.8400000  2.5000000  13.2100000
321  105  8  0.41700000  2.7700000  1.1800000  12.2500000
322  106  7  -0.83400000  7.3200000  6.3400000  10.6400000
323  106  8  0.41700000  7.9100000  6.0800000  9.8800000
324  106  8  0.41700000  7.0400000  7.3000000  10.5300000
325  107  7  -0.83400000  17.2800000  9.3500000  18.5400000
326  107  8  0.41700000  16.8200000  9.2800000  17.6500000
327  107  8  0.41700000  16.6600000  9.7900000  19.2000000
328  108  7  -0.83400000  3.0700000  0.6300000  6.1800000
329  108  8  0.41700000  2.9600000  1.5700000  6.5100000
330  108  8  0.41700000  3.0200000  0.0000000  6.9500000
331  109  7  -0.83400000  16.2200000  3.6700000  3.7400000
332  109  8  0.41700000  16.2400000  2.9100000  4.3800000
333  109  8  0.41700000  15.7400000  4.4400000  4.1400000
334  110  7  -0.83400000  10.2300000  7.6600000  9.6600000
335  110  8  0.41700000  10.3800000  7.8700000  10.6200000
336  110  8  0.41700000  9.9300000  6.7100000  9.5700000
337  111  7  -0.83400000  9.8000000  15.7300000  17.0000000
338  111  8  0.41700000  9.6000000  16.1700000  16.1200000
339  111  8  0.41700000  10.1900000  14.8200000  16.8400000
340  112  7  -0.83400000  18.5900000  15.1800000  16.0500000
341  112  8  0.41700000  18.7300000  15.4500000  15.1000000
342  112  8  0.41700000  19.4200000  15.4000000  16.5800000
343  113  7  -0.83400000  3.5000000  8.9800000  18.0400000
344  113  8  0.41700000  4.2600000  9.4200000  18.5200000
345  113  8  0.41700000  3.8500000  8.5100000  17.2200000
346  114  7  -0.83400000  15.4000000  2.7400000  1.2500000
347  114  8  0.41700000  14.7900000  1.9900000  1.4800000
348  114  8  0.41700000  15.6200000  3.2600000  2.0800000
349  115  7  -0.83400000  13.0300000  8.3800000  0.4200000
350  115  8  0.41700000  13.3700000  7.4500000  0.5700000
351  115  8  0.41700000  13.2100000  8.6500000  -0.5300000
352  116  7  -0.83400000  10.6800000  13.3300000  8.4900000
353  116  8  0.41700000  10.7500000  12.4900000  7.9400000
354  116  8  0.41700000  11.3000000  14.0200000  8.1300000
355  117  7  -0.83400000  3.1900000  8.1000000  9.4900000
356  117  8  0.41700000  4.1200000  8.4600000  9.5400000
357  117  8  0.41700000  3.1300000  7.2500000  10.0100000
358  118  7  -0.83400000  3.3900000  5.0900000  10.0600000
359  118  8  0.41700000  2.8700000  4.2600000  9.8900000
360  118  8  0.41700000  4.1600000  5.1400000  9.4200000
361  119  7  -0.83400000  11.3800000  3.8000000  16.7800000
362  119  8  0.41700000  10.9300000  4.4300000  17.4200000
363  119  8  0.41700000  12.3100000  4.1100000  16.6100000
364  120  7  -0.83400000  11.6000000  2.0700000  14.7700000
365  120  8  0.41700000  11.6000000  2.7100000  15.5400000
366  120  8  0.41700000  11.8800000  2.5500000  13.9400000
367  121  7  -0.83400000  0.0800000  13.2600000  2.0000000
368  121  8  0.41700000  -0.8500000  13.4700000  1.6900000
369  121  8  0.41700000  0.1800000  12.2700000  2.1300000
370  122  7  -0.83400000  5.0400000  15.6800000  9.1000000
371  122  8  0.41700000  5.7000000  16.4200000  9.1900000
372  122  8  0.41700000  5.4800000  14.8900000  8.6800000
373  123  7  -0.83400000  10.0200000  7.9600000  12.3800000
374  123  8  0.41700000  10.4300000  7.6400000  13.2400000
375  123  8  0.41700000  9.0600000  7.6900000  12.3500000
376  124  7  -0.83400000  13.6900000  9.5000000  16.6000000
377  124  8  0.41700000  14.0800000  10.3900000  16.8000000
378  124  8  0.41700000  13.7900000  9.3000000  15.6300000
379  125  7  -0.83400000  8.1500000  5.7200000  3.2500000
380  125  8  0.41700000  8.2200000  4.8300000  2.7900000
381  125  8  0.41700000  7.2100000  6.0600000  3.1700000
382  126  7  -0.83400000  16.5700000  6.0400000  12.0600000
383  126  8  0.41700000  16.1900000  5.3500000  12.6800000
384  126  8  0.41700000  17.3900000  5.6800000  11.6200000
385  127  7  -0.83400000  2.5200000  15.6400000  17.4400000
386  127  8  0.41700000  2.2200000  16.2100000  18.2000000
387  127  8  0.41700000  2.4500000  14.6700000  17.7000000
388  128  7  -0.83400000  6.7100000  4.6400000  12.6900000
389  128  8  0.41700000  6.3700000  3.7500000  12.3900000
390  128  8  0.41700000  6.9700000  5.1800000  11.8900000
391  129  7  -0.83400000  9.3000000  16.7800000  14.6500000
392  129  8  0.41700000  9.0600000  16.6000000  13.7000000
393  129  8  0.41700000  9.6000000  17.7200000  14.7500000
394  130  7  -0.83400000  4.7300000  5.0000000  1.9100000
395  130  8  0.41700000  5.3400000  5.8000000  1.9500000
396  130  8  0.41700000  3.7800000  5.3100000  1.9800000
397  131  7  -0.83400000  13.4700000  10.5900000  12.3400000
398  131  8  0.41700000  13.7100000  9.9600000  11.6000000
399  131  8  0.41700000  12.5700000  10.9900000  12.1600000
400  132  7  -0.83400000  13.0200000  8.5500000  3.0900000
401  132  8  0.41700000  12.1600000  8.2400000  3.5100000
402  132  8  0.41700000  12.9800000  8.4100000  2.1000000
403  133  7  -0.83400000  17.5900000  17.4700000  11.5400000
404  133  8  0.41700000  18.2000000  17.7700000  10.8100000
405  133  8  0.41700000  17.2100000  16.5800000  11.3200000
406  134  7  -0.83400000  12.5200000  17.3100000  11.2800000
407  134  8  0.41700000  13.3600000  17.3600000  10.7400000
408  134  8  0.41700000  12.2900000  16.3500000  11.4600000
409  135  7  -0.83400000  0.8300000  12.5800000  10.2200000
410  135  8  0.41700000  0.7800000  12.5700000  11.2200000
411  135  8  0.41700000  0.0000000  12.1700000  9.8400000
412  136  7  -0.83400000  6.8800000  16.6200000  17.1600000
413  136  8  0.41700000  6.3200000  17.4300000  17.2500000
414  136  8  0.41700000  7.4000000  16.6600000  16.3000000
415  137  7  -0.83400000  9.0300000  0.8600000  1.3300000
416  137  8  0.41700000  9.5400000  0.8700000  0.4700000
417  137  8  0.41700000  9.5900000  0.4400000  2.0400000
418  138  7  -0.83400000  17.2600000  1.3500000  5.2300000
419  138  8  0.41700000  17.9900000  1.1800000  4.5600000
420  138  8  0.41700000  16.9500000  0.4800000  5.6100000
421  139  7  -0.83400000  13.8800000  15.7300000  4.7700000
422  139  8  0.41700000  14.5500000  15.8500000  4.0300000
423  139  8  0.41700000  13.4800000  16.6200000  5.0000000
424  140  7  -0.83400000  1.3000000  17.9400000  18.5100000
425  140  8  0.41700000  0.8900000  17.2000000  19.0400000
426  140  8  0.41700000  1.9400000  18.4500000  19.0900000
427  141  7  -0.83400000  12.8000000  9.2700000  6.7200000
428  141  8  0.41700000  13.4000000  8.4600000  6.7400000
429  141  8  0.41700000  13.2000000  9.9600000  6.1200000
430  142  7  -0.83400000  8.3000000  12.7300000  14.2200000
431  142  8  0.41700000  8.2500000  13.0600000  15.1700000
432  142  8  0.41700000  7.4400000  12.9200000  13.7600000
433  143  7  -0.83400000  6.7200000  16.1600000  1.5400000
434  143  8  0.41700000  6.8100000  16.2600000  0.5500000
435  143  8  0.41700000  6.3200000  15.2700000  1.7500000
436  144  7  -0.83400000  16.5000000  17.2000000  13.9400000
437  144  8  0.41700000  17.0300000  17.3000000  13.1000000
438  144  8  0.41700000  16.2300000  18.1000000  14.2800000
439  145  7  -0.83400000  18.4100000  1.7500000  9.6300000
440  145  8  0.41700000  18.8000000  0.9000000  9.2700000
441  145  8  0.41700000  17.4300000  1.7700000  9.4400000
442  146  7  -0.83400000  2.6300000  3.2600000  7.2000000
443  146  8  0.41700000  1.8400000  3.7700000  6.8600000
444  146  8  0.41700000  2.5400000  3.1100000  8.1800000
445  147  7  -0.83400000  11.9400000  16.1200000  0.3100000
446  147  8  0.41700000  12.0000000  15.1900000  0.6800000
447  147  8  0.41700000  11.3500000  16.1200000  -0.4900000
448  148  7  -0.83400000  8.2200000  10.0200000  13.7200000
449  148  8  0.41700000  8.6200000  10.0100000  12.8000000
450  148  8  0.41700000  8.3200000  10.9400000  14.1200000
451  149  7  -0.83400000  9.1600000  9.1000000  2.9100000
452  149  8  0.41700000  9.7900000  9.4800000  2.2300000
453  149  8  0.41700000  9.5600000  8.2700000  3.3000000
454  150  7  -0.83400000  15.0400000  16.0700000  0.4400000
455  150  8  0.41700000  14.1200000  16.4400000  0.5100000
456  150  8  0.41700000  15.4200000  16.2700000  -0.4600000
457  151  7  -0.83400000  3.7200000  12.8800000  14.9000000
458  151  8  0.41700000  3.5900000  13.8100000  14.5600000
459  151  8  0.41700000  2.8800000  12.3600000  14.7700000
460  152  7  -0.83400000  16.1400000  12.9200000  12.8900000